  variables="x","y"
  zone i=         141 ,j=          92
 -0.1438E+02 -0.1439E+02
 -0.1305E+02 -0.1439E+02
 -0.1185E+02 -0.1439E+02
 -0.1075E+02 -0.1439E+02
 -0.9757E+01 -0.1439E+02
 -0.8852E+01 -0.1439E+02
 -0.8029E+01 -0.1439E+02
 -0.7281E+01 -0.1439E+02
 -0.6601E+01 -0.1439E+02
 -0.5983E+01 -0.1439E+02
 -0.5420E+01 -0.1439E+02
 -0.4910E+01 -0.1439E+02
 -0.4445E+01 -0.1439E+02
 -0.4023E+01 -0.1439E+02
 -0.3639E+01 -0.1439E+02
 -0.3290E+01 -0.1439E+02
 -0.2973E+01 -0.1439E+02
 -0.2684E+01 -0.1439E+02
 -0.2422E+01 -0.1439E+02
 -0.2184E+01 -0.1439E+02
 -0.1967E+01 -0.1439E+02
 -0.1770E+01 -0.1439E+02
 -0.1591E+01 -0.1439E+02
 -0.1428E+01 -0.1439E+02
 -0.1280E+01 -0.1439E+02
 -0.1146E+01 -0.1439E+02
 -0.1023E+01 -0.1439E+02
 -0.9120E+00 -0.1439E+02
 -0.8109E+00 -0.1439E+02
 -0.7190E+00 -0.1439E+02
 -0.6354E+00 -0.1439E+02
 -0.5595E+00 -0.1439E+02
 -0.4905E+00 -0.1439E+02
 -0.4277E+00 -0.1439E+02
 -0.3706E+00 -0.1439E+02
 -0.3187E+00 -0.1439E+02
 -0.2716E+00 -0.1439E+02
 -0.2287E+00 -0.1439E+02
 -0.1897E+00 -0.1439E+02
 -0.1543E+00 -0.1439E+02
 -0.1221E+00 -0.1439E+02
 -0.9282E-01 -0.1439E+02
 -0.6620E-01 -0.1439E+02
 -0.4200E-01 -0.1439E+02
 -0.2000E-01 -0.1439E+02
  0.0000E+00 -0.1439E+02
  0.2000E-01 -0.1439E+02
  0.4000E-01 -0.1439E+02
  0.6000E-01 -0.1439E+02
  0.8000E-01 -0.1439E+02
  0.1000E+00 -0.1439E+02
  0.1200E+00 -0.1439E+02
  0.1400E+00 -0.1439E+02
  0.1600E+00 -0.1439E+02
  0.1800E+00 -0.1439E+02
  0.2000E+00 -0.1439E+02
  0.2200E+00 -0.1439E+02
  0.2400E+00 -0.1439E+02
  0.2600E+00 -0.1439E+02
  0.2800E+00 -0.1439E+02
  0.3000E+00 -0.1439E+02
  0.3200E+00 -0.1439E+02
  0.3400E+00 -0.1439E+02
  0.3600E+00 -0.1439E+02
  0.3800E+00 -0.1439E+02
  0.4000E+00 -0.1439E+02
  0.4200E+00 -0.1439E+02
  0.4400E+00 -0.1439E+02
  0.4600E+00 -0.1439E+02
  0.4800E+00 -0.1439E+02
  0.5000E+00 -0.1439E+02
  0.5200E+00 -0.1439E+02
  0.5400E+00 -0.1439E+02
  0.5600E+00 -0.1439E+02
  0.5800E+00 -0.1439E+02
  0.6000E+00 -0.1439E+02
  0.6200E+00 -0.1439E+02
  0.6400E+00 -0.1439E+02
  0.6600E+00 -0.1439E+02
  0.6800E+00 -0.1439E+02
  0.7000E+00 -0.1439E+02
  0.7200E+00 -0.1439E+02
  0.7400E+00 -0.1439E+02
  0.7600E+00 -0.1439E+02
  0.7800E+00 -0.1439E+02
  0.8000E+00 -0.1439E+02
  0.8200E+00 -0.1439E+02
  0.8400E+00 -0.1439E+02
  0.8600E+00 -0.1439E+02
  0.8800E+00 -0.1439E+02
  0.9000E+00 -0.1439E+02
  0.9200E+00 -0.1439E+02
  0.9400E+00 -0.1439E+02
  0.9600E+00 -0.1439E+02
  0.9800E+00 -0.1439E+02
  0.1000E+01 -0.1439E+02
  0.1020E+01 -0.1439E+02
  0.1042E+01 -0.1439E+02
  0.1066E+01 -0.1439E+02
  0.1093E+01 -0.1439E+02
  0.1122E+01 -0.1439E+02
  0.1154E+01 -0.1439E+02
  0.1190E+01 -0.1439E+02
  0.1229E+01 -0.1439E+02
  0.1272E+01 -0.1439E+02
  0.1319E+01 -0.1439E+02
  0.1371E+01 -0.1439E+02
  0.1428E+01 -0.1439E+02
  0.1490E+01 -0.1439E+02
  0.1559E+01 -0.1439E+02
  0.1635E+01 -0.1439E+02
  0.1719E+01 -0.1439E+02
  0.1811E+01 -0.1439E+02
  0.1912E+01 -0.1439E+02
  0.2023E+01 -0.1439E+02
  0.2146E+01 -0.1439E+02
  0.2280E+01 -0.1439E+02
  0.2428E+01 -0.1439E+02
  0.2591E+01 -0.1439E+02
  0.2770E+01 -0.1439E+02
  0.2967E+01 -0.1439E+02
  0.3184E+01 -0.1439E+02
  0.3422E+01 -0.1439E+02
  0.3684E+01 -0.1439E+02
  0.3973E+01 -0.1439E+02
  0.4290E+01 -0.1439E+02
  0.4639E+01 -0.1439E+02
  0.5023E+01 -0.1439E+02
  0.5445E+01 -0.1439E+02
  0.5910E+01 -0.1439E+02
  0.6420E+01 -0.1439E+02
  0.6983E+01 -0.1439E+02
  0.7601E+01 -0.1439E+02
  0.8281E+01 -0.1439E+02
  0.9029E+01 -0.1439E+02
  0.9852E+01 -0.1439E+02
  0.1076E+02 -0.1439E+02
  0.1175E+02 -0.1439E+02
  0.1285E+02 -0.1439E+02
  0.1405E+02 -0.1439E+02
  0.1538E+02 -0.1439E+02
 -0.1438E+02 -0.1306E+02
 -0.1305E+02 -0.1306E+02
 -0.1185E+02 -0.1306E+02
 -0.1075E+02 -0.1306E+02
 -0.9757E+01 -0.1306E+02
 -0.8852E+01 -0.1306E+02
 -0.8029E+01 -0.1306E+02
 -0.7281E+01 -0.1306E+02
 -0.6601E+01 -0.1306E+02
 -0.5983E+01 -0.1306E+02
 -0.5420E+01 -0.1306E+02
 -0.4910E+01 -0.1306E+02
 -0.4445E+01 -0.1306E+02
 -0.4023E+01 -0.1306E+02
 -0.3639E+01 -0.1306E+02
 -0.3290E+01 -0.1306E+02
 -0.2973E+01 -0.1306E+02
 -0.2684E+01 -0.1306E+02
 -0.2422E+01 -0.1306E+02
 -0.2184E+01 -0.1306E+02
 -0.1967E+01 -0.1306E+02
 -0.1770E+01 -0.1306E+02
 -0.1591E+01 -0.1306E+02
 -0.1428E+01 -0.1306E+02
 -0.1280E+01 -0.1306E+02
 -0.1146E+01 -0.1306E+02
 -0.1023E+01 -0.1306E+02
 -0.9120E+00 -0.1306E+02
 -0.8109E+00 -0.1306E+02
 -0.7190E+00 -0.1306E+02
 -0.6354E+00 -0.1306E+02
 -0.5595E+00 -0.1306E+02
 -0.4905E+00 -0.1306E+02
 -0.4277E+00 -0.1306E+02
 -0.3706E+00 -0.1306E+02
 -0.3187E+00 -0.1306E+02
 -0.2716E+00 -0.1306E+02
 -0.2287E+00 -0.1306E+02
 -0.1897E+00 -0.1306E+02
 -0.1543E+00 -0.1306E+02
 -0.1221E+00 -0.1306E+02
 -0.9282E-01 -0.1306E+02
 -0.6620E-01 -0.1306E+02
 -0.4200E-01 -0.1306E+02
 -0.2000E-01 -0.1306E+02
  0.0000E+00 -0.1306E+02
  0.2000E-01 -0.1306E+02
  0.4000E-01 -0.1306E+02
  0.6000E-01 -0.1306E+02
  0.8000E-01 -0.1306E+02
  0.1000E+00 -0.1306E+02
  0.1200E+00 -0.1306E+02
  0.1400E+00 -0.1306E+02
  0.1600E+00 -0.1306E+02
  0.1800E+00 -0.1306E+02
  0.2000E+00 -0.1306E+02
  0.2200E+00 -0.1306E+02
  0.2400E+00 -0.1306E+02
  0.2600E+00 -0.1306E+02
  0.2800E+00 -0.1306E+02
  0.3000E+00 -0.1306E+02
  0.3200E+00 -0.1306E+02
  0.3400E+00 -0.1306E+02
  0.3600E+00 -0.1306E+02
  0.3800E+00 -0.1306E+02
  0.4000E+00 -0.1306E+02
  0.4200E+00 -0.1306E+02
  0.4400E+00 -0.1306E+02
  0.4600E+00 -0.1306E+02
  0.4800E+00 -0.1306E+02
  0.5000E+00 -0.1306E+02
  0.5200E+00 -0.1306E+02
  0.5400E+00 -0.1306E+02
  0.5600E+00 -0.1306E+02
  0.5800E+00 -0.1306E+02
  0.6000E+00 -0.1306E+02
  0.6200E+00 -0.1306E+02
  0.6400E+00 -0.1306E+02
  0.6600E+00 -0.1306E+02
  0.6800E+00 -0.1306E+02
  0.7000E+00 -0.1306E+02
  0.7200E+00 -0.1306E+02
  0.7400E+00 -0.1306E+02
  0.7600E+00 -0.1306E+02
  0.7800E+00 -0.1306E+02
  0.8000E+00 -0.1306E+02
  0.8200E+00 -0.1306E+02
  0.8400E+00 -0.1306E+02
  0.8600E+00 -0.1306E+02
  0.8800E+00 -0.1306E+02
  0.9000E+00 -0.1306E+02
  0.9200E+00 -0.1306E+02
  0.9400E+00 -0.1306E+02
  0.9600E+00 -0.1306E+02
  0.9800E+00 -0.1306E+02
  0.1000E+01 -0.1306E+02
  0.1020E+01 -0.1306E+02
  0.1042E+01 -0.1306E+02
  0.1066E+01 -0.1306E+02
  0.1093E+01 -0.1306E+02
  0.1122E+01 -0.1306E+02
  0.1154E+01 -0.1306E+02
  0.1190E+01 -0.1306E+02
  0.1229E+01 -0.1306E+02
  0.1272E+01 -0.1306E+02
  0.1319E+01 -0.1306E+02
  0.1371E+01 -0.1306E+02
  0.1428E+01 -0.1306E+02
  0.1490E+01 -0.1306E+02
  0.1559E+01 -0.1306E+02
  0.1635E+01 -0.1306E+02
  0.1719E+01 -0.1306E+02
  0.1811E+01 -0.1306E+02
  0.1912E+01 -0.1306E+02
  0.2023E+01 -0.1306E+02
  0.2146E+01 -0.1306E+02
  0.2280E+01 -0.1306E+02
  0.2428E+01 -0.1306E+02
  0.2591E+01 -0.1306E+02
  0.2770E+01 -0.1306E+02
  0.2967E+01 -0.1306E+02
  0.3184E+01 -0.1306E+02
  0.3422E+01 -0.1306E+02
  0.3684E+01 -0.1306E+02
  0.3973E+01 -0.1306E+02
  0.4290E+01 -0.1306E+02
  0.4639E+01 -0.1306E+02
  0.5023E+01 -0.1306E+02
  0.5445E+01 -0.1306E+02
  0.5910E+01 -0.1306E+02
  0.6420E+01 -0.1306E+02
  0.6983E+01 -0.1306E+02
  0.7601E+01 -0.1306E+02
  0.8281E+01 -0.1306E+02
  0.9029E+01 -0.1306E+02
  0.9852E+01 -0.1306E+02
  0.1076E+02 -0.1306E+02
  0.1175E+02 -0.1306E+02
  0.1285E+02 -0.1306E+02
  0.1405E+02 -0.1306E+02
  0.1538E+02 -0.1306E+02
 -0.1438E+02 -0.1186E+02
 -0.1305E+02 -0.1186E+02
 -0.1185E+02 -0.1186E+02
 -0.1075E+02 -0.1186E+02
 -0.9757E+01 -0.1186E+02
 -0.8852E+01 -0.1186E+02
 -0.8029E+01 -0.1186E+02
 -0.7281E+01 -0.1186E+02
 -0.6601E+01 -0.1186E+02
 -0.5983E+01 -0.1186E+02
 -0.5420E+01 -0.1186E+02
 -0.4910E+01 -0.1186E+02
 -0.4445E+01 -0.1186E+02
 -0.4023E+01 -0.1186E+02
 -0.3639E+01 -0.1186E+02
 -0.3290E+01 -0.1186E+02
 -0.2973E+01 -0.1186E+02
 -0.2684E+01 -0.1186E+02
 -0.2422E+01 -0.1186E+02
 -0.2184E+01 -0.1186E+02
 -0.1967E+01 -0.1186E+02
 -0.1770E+01 -0.1186E+02
 -0.1591E+01 -0.1186E+02
 -0.1428E+01 -0.1186E+02
 -0.1280E+01 -0.1186E+02
 -0.1146E+01 -0.1186E+02
 -0.1023E+01 -0.1186E+02
 -0.9120E+00 -0.1186E+02
 -0.8109E+00 -0.1186E+02
 -0.7190E+00 -0.1186E+02
 -0.6354E+00 -0.1186E+02
 -0.5595E+00 -0.1186E+02
 -0.4905E+00 -0.1186E+02
 -0.4277E+00 -0.1186E+02
 -0.3706E+00 -0.1186E+02
 -0.3187E+00 -0.1186E+02
 -0.2716E+00 -0.1186E+02
 -0.2287E+00 -0.1186E+02
 -0.1897E+00 -0.1186E+02
 -0.1543E+00 -0.1186E+02
 -0.1221E+00 -0.1186E+02
 -0.9282E-01 -0.1186E+02
 -0.6620E-01 -0.1186E+02
 -0.4200E-01 -0.1186E+02
 -0.2000E-01 -0.1186E+02
  0.0000E+00 -0.1186E+02
  0.2000E-01 -0.1186E+02
  0.4000E-01 -0.1186E+02
  0.6000E-01 -0.1186E+02
  0.8000E-01 -0.1186E+02
  0.1000E+00 -0.1186E+02
  0.1200E+00 -0.1186E+02
  0.1400E+00 -0.1186E+02
  0.1600E+00 -0.1186E+02
  0.1800E+00 -0.1186E+02
  0.2000E+00 -0.1186E+02
  0.2200E+00 -0.1186E+02
  0.2400E+00 -0.1186E+02
  0.2600E+00 -0.1186E+02
  0.2800E+00 -0.1186E+02
  0.3000E+00 -0.1186E+02
  0.3200E+00 -0.1186E+02
  0.3400E+00 -0.1186E+02
  0.3600E+00 -0.1186E+02
  0.3800E+00 -0.1186E+02
  0.4000E+00 -0.1186E+02
  0.4200E+00 -0.1186E+02
  0.4400E+00 -0.1186E+02
  0.4600E+00 -0.1186E+02
  0.4800E+00 -0.1186E+02
  0.5000E+00 -0.1186E+02
  0.5200E+00 -0.1186E+02
  0.5400E+00 -0.1186E+02
  0.5600E+00 -0.1186E+02
  0.5800E+00 -0.1186E+02
  0.6000E+00 -0.1186E+02
  0.6200E+00 -0.1186E+02
  0.6400E+00 -0.1186E+02
  0.6600E+00 -0.1186E+02
  0.6800E+00 -0.1186E+02
  0.7000E+00 -0.1186E+02
  0.7200E+00 -0.1186E+02
  0.7400E+00 -0.1186E+02
  0.7600E+00 -0.1186E+02
  0.7800E+00 -0.1186E+02
  0.8000E+00 -0.1186E+02
  0.8200E+00 -0.1186E+02
  0.8400E+00 -0.1186E+02
  0.8600E+00 -0.1186E+02
  0.8800E+00 -0.1186E+02
  0.9000E+00 -0.1186E+02
  0.9200E+00 -0.1186E+02
  0.9400E+00 -0.1186E+02
  0.9600E+00 -0.1186E+02
  0.9800E+00 -0.1186E+02
  0.1000E+01 -0.1186E+02
  0.1020E+01 -0.1186E+02
  0.1042E+01 -0.1186E+02
  0.1066E+01 -0.1186E+02
  0.1093E+01 -0.1186E+02
  0.1122E+01 -0.1186E+02
  0.1154E+01 -0.1186E+02
  0.1190E+01 -0.1186E+02
  0.1229E+01 -0.1186E+02
  0.1272E+01 -0.1186E+02
  0.1319E+01 -0.1186E+02
  0.1371E+01 -0.1186E+02
  0.1428E+01 -0.1186E+02
  0.1490E+01 -0.1186E+02
  0.1559E+01 -0.1186E+02
  0.1635E+01 -0.1186E+02
  0.1719E+01 -0.1186E+02
  0.1811E+01 -0.1186E+02
  0.1912E+01 -0.1186E+02
  0.2023E+01 -0.1186E+02
  0.2146E+01 -0.1186E+02
  0.2280E+01 -0.1186E+02
  0.2428E+01 -0.1186E+02
  0.2591E+01 -0.1186E+02
  0.2770E+01 -0.1186E+02
  0.2967E+01 -0.1186E+02
  0.3184E+01 -0.1186E+02
  0.3422E+01 -0.1186E+02
  0.3684E+01 -0.1186E+02
  0.3973E+01 -0.1186E+02
  0.4290E+01 -0.1186E+02
  0.4639E+01 -0.1186E+02
  0.5023E+01 -0.1186E+02
  0.5445E+01 -0.1186E+02
  0.5910E+01 -0.1186E+02
  0.6420E+01 -0.1186E+02
  0.6983E+01 -0.1186E+02
  0.7601E+01 -0.1186E+02
  0.8281E+01 -0.1186E+02
  0.9029E+01 -0.1186E+02
  0.9852E+01 -0.1186E+02
  0.1076E+02 -0.1186E+02
  0.1175E+02 -0.1186E+02
  0.1285E+02 -0.1186E+02
  0.1405E+02 -0.1186E+02
  0.1538E+02 -0.1186E+02
 -0.1438E+02 -0.1076E+02
 -0.1305E+02 -0.1076E+02
 -0.1185E+02 -0.1076E+02
 -0.1075E+02 -0.1076E+02
 -0.9757E+01 -0.1076E+02
 -0.8852E+01 -0.1076E+02
 -0.8029E+01 -0.1076E+02
 -0.7281E+01 -0.1076E+02
 -0.6601E+01 -0.1076E+02
 -0.5983E+01 -0.1076E+02
 -0.5420E+01 -0.1076E+02
 -0.4910E+01 -0.1076E+02
 -0.4445E+01 -0.1076E+02
 -0.4023E+01 -0.1076E+02
 -0.3639E+01 -0.1076E+02
 -0.3290E+01 -0.1076E+02
 -0.2973E+01 -0.1076E+02
 -0.2684E+01 -0.1076E+02
 -0.2422E+01 -0.1076E+02
 -0.2184E+01 -0.1076E+02
 -0.1967E+01 -0.1076E+02
 -0.1770E+01 -0.1076E+02
 -0.1591E+01 -0.1076E+02
 -0.1428E+01 -0.1076E+02
 -0.1280E+01 -0.1076E+02
 -0.1146E+01 -0.1076E+02
 -0.1023E+01 -0.1076E+02
 -0.9120E+00 -0.1076E+02
 -0.8109E+00 -0.1076E+02
 -0.7190E+00 -0.1076E+02
 -0.6354E+00 -0.1076E+02
 -0.5595E+00 -0.1076E+02
 -0.4905E+00 -0.1076E+02
 -0.4277E+00 -0.1076E+02
 -0.3706E+00 -0.1076E+02
 -0.3187E+00 -0.1076E+02
 -0.2716E+00 -0.1076E+02
 -0.2287E+00 -0.1076E+02
 -0.1897E+00 -0.1076E+02
 -0.1543E+00 -0.1076E+02
 -0.1221E+00 -0.1076E+02
 -0.9282E-01 -0.1076E+02
 -0.6620E-01 -0.1076E+02
 -0.4200E-01 -0.1076E+02
 -0.2000E-01 -0.1076E+02
  0.0000E+00 -0.1076E+02
  0.2000E-01 -0.1076E+02
  0.4000E-01 -0.1076E+02
  0.6000E-01 -0.1076E+02
  0.8000E-01 -0.1076E+02
  0.1000E+00 -0.1076E+02
  0.1200E+00 -0.1076E+02
  0.1400E+00 -0.1076E+02
  0.1600E+00 -0.1076E+02
  0.1800E+00 -0.1076E+02
  0.2000E+00 -0.1076E+02
  0.2200E+00 -0.1076E+02
  0.2400E+00 -0.1076E+02
  0.2600E+00 -0.1076E+02
  0.2800E+00 -0.1076E+02
  0.3000E+00 -0.1076E+02
  0.3200E+00 -0.1076E+02
  0.3400E+00 -0.1076E+02
  0.3600E+00 -0.1076E+02
  0.3800E+00 -0.1076E+02
  0.4000E+00 -0.1076E+02
  0.4200E+00 -0.1076E+02
  0.4400E+00 -0.1076E+02
  0.4600E+00 -0.1076E+02
  0.4800E+00 -0.1076E+02
  0.5000E+00 -0.1076E+02
  0.5200E+00 -0.1076E+02
  0.5400E+00 -0.1076E+02
  0.5600E+00 -0.1076E+02
  0.5800E+00 -0.1076E+02
  0.6000E+00 -0.1076E+02
  0.6200E+00 -0.1076E+02
  0.6400E+00 -0.1076E+02
  0.6600E+00 -0.1076E+02
  0.6800E+00 -0.1076E+02
  0.7000E+00 -0.1076E+02
  0.7200E+00 -0.1076E+02
  0.7400E+00 -0.1076E+02
  0.7600E+00 -0.1076E+02
  0.7800E+00 -0.1076E+02
  0.8000E+00 -0.1076E+02
  0.8200E+00 -0.1076E+02
  0.8400E+00 -0.1076E+02
  0.8600E+00 -0.1076E+02
  0.8800E+00 -0.1076E+02
  0.9000E+00 -0.1076E+02
  0.9200E+00 -0.1076E+02
  0.9400E+00 -0.1076E+02
  0.9600E+00 -0.1076E+02
  0.9800E+00 -0.1076E+02
  0.1000E+01 -0.1076E+02
  0.1020E+01 -0.1076E+02
  0.1042E+01 -0.1076E+02
  0.1066E+01 -0.1076E+02
  0.1093E+01 -0.1076E+02
  0.1122E+01 -0.1076E+02
  0.1154E+01 -0.1076E+02
  0.1190E+01 -0.1076E+02
  0.1229E+01 -0.1076E+02
  0.1272E+01 -0.1076E+02
  0.1319E+01 -0.1076E+02
  0.1371E+01 -0.1076E+02
  0.1428E+01 -0.1076E+02
  0.1490E+01 -0.1076E+02
  0.1559E+01 -0.1076E+02
  0.1635E+01 -0.1076E+02
  0.1719E+01 -0.1076E+02
  0.1811E+01 -0.1076E+02
  0.1912E+01 -0.1076E+02
  0.2023E+01 -0.1076E+02
  0.2146E+01 -0.1076E+02
  0.2280E+01 -0.1076E+02
  0.2428E+01 -0.1076E+02
  0.2591E+01 -0.1076E+02
  0.2770E+01 -0.1076E+02
  0.2967E+01 -0.1076E+02
  0.3184E+01 -0.1076E+02
  0.3422E+01 -0.1076E+02
  0.3684E+01 -0.1076E+02
  0.3973E+01 -0.1076E+02
  0.4290E+01 -0.1076E+02
  0.4639E+01 -0.1076E+02
  0.5023E+01 -0.1076E+02
  0.5445E+01 -0.1076E+02
  0.5910E+01 -0.1076E+02
  0.6420E+01 -0.1076E+02
  0.6983E+01 -0.1076E+02
  0.7601E+01 -0.1076E+02
  0.8281E+01 -0.1076E+02
  0.9029E+01 -0.1076E+02
  0.9852E+01 -0.1076E+02
  0.1076E+02 -0.1076E+02
  0.1175E+02 -0.1076E+02
  0.1285E+02 -0.1076E+02
  0.1405E+02 -0.1076E+02
  0.1538E+02 -0.1076E+02
 -0.1438E+02 -0.9767E+01
 -0.1305E+02 -0.9767E+01
 -0.1185E+02 -0.9767E+01
 -0.1075E+02 -0.9767E+01
 -0.9757E+01 -0.9767E+01
 -0.8852E+01 -0.9767E+01
 -0.8029E+01 -0.9767E+01
 -0.7281E+01 -0.9767E+01
 -0.6601E+01 -0.9767E+01
 -0.5983E+01 -0.9767E+01
 -0.5420E+01 -0.9767E+01
 -0.4910E+01 -0.9767E+01
 -0.4445E+01 -0.9767E+01
 -0.4023E+01 -0.9767E+01
 -0.3639E+01 -0.9767E+01
 -0.3290E+01 -0.9767E+01
 -0.2973E+01 -0.9767E+01
 -0.2684E+01 -0.9767E+01
 -0.2422E+01 -0.9767E+01
 -0.2184E+01 -0.9767E+01
 -0.1967E+01 -0.9767E+01
 -0.1770E+01 -0.9767E+01
 -0.1591E+01 -0.9767E+01
 -0.1428E+01 -0.9767E+01
 -0.1280E+01 -0.9767E+01
 -0.1146E+01 -0.9767E+01
 -0.1023E+01 -0.9767E+01
 -0.9120E+00 -0.9767E+01
 -0.8109E+00 -0.9767E+01
 -0.7190E+00 -0.9767E+01
 -0.6354E+00 -0.9767E+01
 -0.5595E+00 -0.9767E+01
 -0.4905E+00 -0.9767E+01
 -0.4277E+00 -0.9767E+01
 -0.3706E+00 -0.9767E+01
 -0.3187E+00 -0.9767E+01
 -0.2716E+00 -0.9767E+01
 -0.2287E+00 -0.9767E+01
 -0.1897E+00 -0.9767E+01
 -0.1543E+00 -0.9767E+01
 -0.1221E+00 -0.9767E+01
 -0.9282E-01 -0.9767E+01
 -0.6620E-01 -0.9767E+01
 -0.4200E-01 -0.9767E+01
 -0.2000E-01 -0.9767E+01
  0.0000E+00 -0.9767E+01
  0.2000E-01 -0.9767E+01
  0.4000E-01 -0.9767E+01
  0.6000E-01 -0.9767E+01
  0.8000E-01 -0.9767E+01
  0.1000E+00 -0.9767E+01
  0.1200E+00 -0.9767E+01
  0.1400E+00 -0.9767E+01
  0.1600E+00 -0.9767E+01
  0.1800E+00 -0.9767E+01
  0.2000E+00 -0.9767E+01
  0.2200E+00 -0.9767E+01
  0.2400E+00 -0.9767E+01
  0.2600E+00 -0.9767E+01
  0.2800E+00 -0.9767E+01
  0.3000E+00 -0.9767E+01
  0.3200E+00 -0.9767E+01
  0.3400E+00 -0.9767E+01
  0.3600E+00 -0.9767E+01
  0.3800E+00 -0.9767E+01
  0.4000E+00 -0.9767E+01
  0.4200E+00 -0.9767E+01
  0.4400E+00 -0.9767E+01
  0.4600E+00 -0.9767E+01
  0.4800E+00 -0.9767E+01
  0.5000E+00 -0.9767E+01
  0.5200E+00 -0.9767E+01
  0.5400E+00 -0.9767E+01
  0.5600E+00 -0.9767E+01
  0.5800E+00 -0.9767E+01
  0.6000E+00 -0.9767E+01
  0.6200E+00 -0.9767E+01
  0.6400E+00 -0.9767E+01
  0.6600E+00 -0.9767E+01
  0.6800E+00 -0.9767E+01
  0.7000E+00 -0.9767E+01
  0.7200E+00 -0.9767E+01
  0.7400E+00 -0.9767E+01
  0.7600E+00 -0.9767E+01
  0.7800E+00 -0.9767E+01
  0.8000E+00 -0.9767E+01
  0.8200E+00 -0.9767E+01
  0.8400E+00 -0.9767E+01
  0.8600E+00 -0.9767E+01
  0.8800E+00 -0.9767E+01
  0.9000E+00 -0.9767E+01
  0.9200E+00 -0.9767E+01
  0.9400E+00 -0.9767E+01
  0.9600E+00 -0.9767E+01
  0.9800E+00 -0.9767E+01
  0.1000E+01 -0.9767E+01
  0.1020E+01 -0.9767E+01
  0.1042E+01 -0.9767E+01
  0.1066E+01 -0.9767E+01
  0.1093E+01 -0.9767E+01
  0.1122E+01 -0.9767E+01
  0.1154E+01 -0.9767E+01
  0.1190E+01 -0.9767E+01
  0.1229E+01 -0.9767E+01
  0.1272E+01 -0.9767E+01
  0.1319E+01 -0.9767E+01
  0.1371E+01 -0.9767E+01
  0.1428E+01 -0.9767E+01
  0.1490E+01 -0.9767E+01
  0.1559E+01 -0.9767E+01
  0.1635E+01 -0.9767E+01
  0.1719E+01 -0.9767E+01
  0.1811E+01 -0.9767E+01
  0.1912E+01 -0.9767E+01
  0.2023E+01 -0.9767E+01
  0.2146E+01 -0.9767E+01
  0.2280E+01 -0.9767E+01
  0.2428E+01 -0.9767E+01
  0.2591E+01 -0.9767E+01
  0.2770E+01 -0.9767E+01
  0.2967E+01 -0.9767E+01
  0.3184E+01 -0.9767E+01
  0.3422E+01 -0.9767E+01
  0.3684E+01 -0.9767E+01
  0.3973E+01 -0.9767E+01
  0.4290E+01 -0.9767E+01
  0.4639E+01 -0.9767E+01
  0.5023E+01 -0.9767E+01
  0.5445E+01 -0.9767E+01
  0.5910E+01 -0.9767E+01
  0.6420E+01 -0.9767E+01
  0.6983E+01 -0.9767E+01
  0.7601E+01 -0.9767E+01
  0.8281E+01 -0.9767E+01
  0.9029E+01 -0.9767E+01
  0.9852E+01 -0.9767E+01
  0.1076E+02 -0.9767E+01
  0.1175E+02 -0.9767E+01
  0.1285E+02 -0.9767E+01
  0.1405E+02 -0.9767E+01
  0.1538E+02 -0.9767E+01
 -0.1438E+02 -0.8862E+01
 -0.1305E+02 -0.8862E+01
 -0.1185E+02 -0.8862E+01
 -0.1075E+02 -0.8862E+01
 -0.9757E+01 -0.8862E+01
 -0.8852E+01 -0.8862E+01
 -0.8029E+01 -0.8862E+01
 -0.7281E+01 -0.8862E+01
 -0.6601E+01 -0.8862E+01
 -0.5983E+01 -0.8862E+01
 -0.5420E+01 -0.8862E+01
 -0.4910E+01 -0.8862E+01
 -0.4445E+01 -0.8862E+01
 -0.4023E+01 -0.8862E+01
 -0.3639E+01 -0.8862E+01
 -0.3290E+01 -0.8862E+01
 -0.2973E+01 -0.8862E+01
 -0.2684E+01 -0.8862E+01
 -0.2422E+01 -0.8862E+01
 -0.2184E+01 -0.8862E+01
 -0.1967E+01 -0.8862E+01
 -0.1770E+01 -0.8862E+01
 -0.1591E+01 -0.8862E+01
 -0.1428E+01 -0.8862E+01
 -0.1280E+01 -0.8862E+01
 -0.1146E+01 -0.8862E+01
 -0.1023E+01 -0.8862E+01
 -0.9120E+00 -0.8862E+01
 -0.8109E+00 -0.8862E+01
 -0.7190E+00 -0.8862E+01
 -0.6354E+00 -0.8862E+01
 -0.5595E+00 -0.8862E+01
 -0.4905E+00 -0.8862E+01
 -0.4277E+00 -0.8862E+01
 -0.3706E+00 -0.8862E+01
 -0.3187E+00 -0.8862E+01
 -0.2716E+00 -0.8862E+01
 -0.2287E+00 -0.8862E+01
 -0.1897E+00 -0.8862E+01
 -0.1543E+00 -0.8862E+01
 -0.1221E+00 -0.8862E+01
 -0.9282E-01 -0.8862E+01
 -0.6620E-01 -0.8862E+01
 -0.4200E-01 -0.8862E+01
 -0.2000E-01 -0.8862E+01
  0.0000E+00 -0.8862E+01
  0.2000E-01 -0.8862E+01
  0.4000E-01 -0.8862E+01
  0.6000E-01 -0.8862E+01
  0.8000E-01 -0.8862E+01
  0.1000E+00 -0.8862E+01
  0.1200E+00 -0.8862E+01
  0.1400E+00 -0.8862E+01
  0.1600E+00 -0.8862E+01
  0.1800E+00 -0.8862E+01
  0.2000E+00 -0.8862E+01
  0.2200E+00 -0.8862E+01
  0.2400E+00 -0.8862E+01
  0.2600E+00 -0.8862E+01
  0.2800E+00 -0.8862E+01
  0.3000E+00 -0.8862E+01
  0.3200E+00 -0.8862E+01
  0.3400E+00 -0.8862E+01
  0.3600E+00 -0.8862E+01
  0.3800E+00 -0.8862E+01
  0.4000E+00 -0.8862E+01
  0.4200E+00 -0.8862E+01
  0.4400E+00 -0.8862E+01
  0.4600E+00 -0.8862E+01
  0.4800E+00 -0.8862E+01
  0.5000E+00 -0.8862E+01
  0.5200E+00 -0.8862E+01
  0.5400E+00 -0.8862E+01
  0.5600E+00 -0.8862E+01
  0.5800E+00 -0.8862E+01
  0.6000E+00 -0.8862E+01
  0.6200E+00 -0.8862E+01
  0.6400E+00 -0.8862E+01
  0.6600E+00 -0.8862E+01
  0.6800E+00 -0.8862E+01
  0.7000E+00 -0.8862E+01
  0.7200E+00 -0.8862E+01
  0.7400E+00 -0.8862E+01
  0.7600E+00 -0.8862E+01
  0.7800E+00 -0.8862E+01
  0.8000E+00 -0.8862E+01
  0.8200E+00 -0.8862E+01
  0.8400E+00 -0.8862E+01
  0.8600E+00 -0.8862E+01
  0.8800E+00 -0.8862E+01
  0.9000E+00 -0.8862E+01
  0.9200E+00 -0.8862E+01
  0.9400E+00 -0.8862E+01
  0.9600E+00 -0.8862E+01
  0.9800E+00 -0.8862E+01
  0.1000E+01 -0.8862E+01
  0.1020E+01 -0.8862E+01
  0.1042E+01 -0.8862E+01
  0.1066E+01 -0.8862E+01
  0.1093E+01 -0.8862E+01
  0.1122E+01 -0.8862E+01
  0.1154E+01 -0.8862E+01
  0.1190E+01 -0.8862E+01
  0.1229E+01 -0.8862E+01
  0.1272E+01 -0.8862E+01
  0.1319E+01 -0.8862E+01
  0.1371E+01 -0.8862E+01
  0.1428E+01 -0.8862E+01
  0.1490E+01 -0.8862E+01
  0.1559E+01 -0.8862E+01
  0.1635E+01 -0.8862E+01
  0.1719E+01 -0.8862E+01
  0.1811E+01 -0.8862E+01
  0.1912E+01 -0.8862E+01
  0.2023E+01 -0.8862E+01
  0.2146E+01 -0.8862E+01
  0.2280E+01 -0.8862E+01
  0.2428E+01 -0.8862E+01
  0.2591E+01 -0.8862E+01
  0.2770E+01 -0.8862E+01
  0.2967E+01 -0.8862E+01
  0.3184E+01 -0.8862E+01
  0.3422E+01 -0.8862E+01
  0.3684E+01 -0.8862E+01
  0.3973E+01 -0.8862E+01
  0.4290E+01 -0.8862E+01
  0.4639E+01 -0.8862E+01
  0.5023E+01 -0.8862E+01
  0.5445E+01 -0.8862E+01
  0.5910E+01 -0.8862E+01
  0.6420E+01 -0.8862E+01
  0.6983E+01 -0.8862E+01
  0.7601E+01 -0.8862E+01
  0.8281E+01 -0.8862E+01
  0.9029E+01 -0.8862E+01
  0.9852E+01 -0.8862E+01
  0.1076E+02 -0.8862E+01
  0.1175E+02 -0.8862E+01
  0.1285E+02 -0.8862E+01
  0.1405E+02 -0.8862E+01
  0.1538E+02 -0.8862E+01
 -0.1438E+02 -0.8039E+01
 -0.1305E+02 -0.8039E+01
 -0.1185E+02 -0.8039E+01
 -0.1075E+02 -0.8039E+01
 -0.9757E+01 -0.8039E+01
 -0.8852E+01 -0.8039E+01
 -0.8029E+01 -0.8039E+01
 -0.7281E+01 -0.8039E+01
 -0.6601E+01 -0.8039E+01
 -0.5983E+01 -0.8039E+01
 -0.5420E+01 -0.8039E+01
 -0.4910E+01 -0.8039E+01
 -0.4445E+01 -0.8039E+01
 -0.4023E+01 -0.8039E+01
 -0.3639E+01 -0.8039E+01
 -0.3290E+01 -0.8039E+01
 -0.2973E+01 -0.8039E+01
 -0.2684E+01 -0.8039E+01
 -0.2422E+01 -0.8039E+01
 -0.2184E+01 -0.8039E+01
 -0.1967E+01 -0.8039E+01
 -0.1770E+01 -0.8039E+01
 -0.1591E+01 -0.8039E+01
 -0.1428E+01 -0.8039E+01
 -0.1280E+01 -0.8039E+01
 -0.1146E+01 -0.8039E+01
 -0.1023E+01 -0.8039E+01
 -0.9120E+00 -0.8039E+01
 -0.8109E+00 -0.8039E+01
 -0.7190E+00 -0.8039E+01
 -0.6354E+00 -0.8039E+01
 -0.5595E+00 -0.8039E+01
 -0.4905E+00 -0.8039E+01
 -0.4277E+00 -0.8039E+01
 -0.3706E+00 -0.8039E+01
 -0.3187E+00 -0.8039E+01
 -0.2716E+00 -0.8039E+01
 -0.2287E+00 -0.8039E+01
 -0.1897E+00 -0.8039E+01
 -0.1543E+00 -0.8039E+01
 -0.1221E+00 -0.8039E+01
 -0.9282E-01 -0.8039E+01
 -0.6620E-01 -0.8039E+01
 -0.4200E-01 -0.8039E+01
 -0.2000E-01 -0.8039E+01
  0.0000E+00 -0.8039E+01
  0.2000E-01 -0.8039E+01
  0.4000E-01 -0.8039E+01
  0.6000E-01 -0.8039E+01
  0.8000E-01 -0.8039E+01
  0.1000E+00 -0.8039E+01
  0.1200E+00 -0.8039E+01
  0.1400E+00 -0.8039E+01
  0.1600E+00 -0.8039E+01
  0.1800E+00 -0.8039E+01
  0.2000E+00 -0.8039E+01
  0.2200E+00 -0.8039E+01
  0.2400E+00 -0.8039E+01
  0.2600E+00 -0.8039E+01
  0.2800E+00 -0.8039E+01
  0.3000E+00 -0.8039E+01
  0.3200E+00 -0.8039E+01
  0.3400E+00 -0.8039E+01
  0.3600E+00 -0.8039E+01
  0.3800E+00 -0.8039E+01
  0.4000E+00 -0.8039E+01
  0.4200E+00 -0.8039E+01
  0.4400E+00 -0.8039E+01
  0.4600E+00 -0.8039E+01
  0.4800E+00 -0.8039E+01
  0.5000E+00 -0.8039E+01
  0.5200E+00 -0.8039E+01
  0.5400E+00 -0.8039E+01
  0.5600E+00 -0.8039E+01
  0.5800E+00 -0.8039E+01
  0.6000E+00 -0.8039E+01
  0.6200E+00 -0.8039E+01
  0.6400E+00 -0.8039E+01
  0.6600E+00 -0.8039E+01
  0.6800E+00 -0.8039E+01
  0.7000E+00 -0.8039E+01
  0.7200E+00 -0.8039E+01
  0.7400E+00 -0.8039E+01
  0.7600E+00 -0.8039E+01
  0.7800E+00 -0.8039E+01
  0.8000E+00 -0.8039E+01
  0.8200E+00 -0.8039E+01
  0.8400E+00 -0.8039E+01
  0.8600E+00 -0.8039E+01
  0.8800E+00 -0.8039E+01
  0.9000E+00 -0.8039E+01
  0.9200E+00 -0.8039E+01
  0.9400E+00 -0.8039E+01
  0.9600E+00 -0.8039E+01
  0.9800E+00 -0.8039E+01
  0.1000E+01 -0.8039E+01
  0.1020E+01 -0.8039E+01
  0.1042E+01 -0.8039E+01
  0.1066E+01 -0.8039E+01
  0.1093E+01 -0.8039E+01
  0.1122E+01 -0.8039E+01
  0.1154E+01 -0.8039E+01
  0.1190E+01 -0.8039E+01
  0.1229E+01 -0.8039E+01
  0.1272E+01 -0.8039E+01
  0.1319E+01 -0.8039E+01
  0.1371E+01 -0.8039E+01
  0.1428E+01 -0.8039E+01
  0.1490E+01 -0.8039E+01
  0.1559E+01 -0.8039E+01
  0.1635E+01 -0.8039E+01
  0.1719E+01 -0.8039E+01
  0.1811E+01 -0.8039E+01
  0.1912E+01 -0.8039E+01
  0.2023E+01 -0.8039E+01
  0.2146E+01 -0.8039E+01
  0.2280E+01 -0.8039E+01
  0.2428E+01 -0.8039E+01
  0.2591E+01 -0.8039E+01
  0.2770E+01 -0.8039E+01
  0.2967E+01 -0.8039E+01
  0.3184E+01 -0.8039E+01
  0.3422E+01 -0.8039E+01
  0.3684E+01 -0.8039E+01
  0.3973E+01 -0.8039E+01
  0.4290E+01 -0.8039E+01
  0.4639E+01 -0.8039E+01
  0.5023E+01 -0.8039E+01
  0.5445E+01 -0.8039E+01
  0.5910E+01 -0.8039E+01
  0.6420E+01 -0.8039E+01
  0.6983E+01 -0.8039E+01
  0.7601E+01 -0.8039E+01
  0.8281E+01 -0.8039E+01
  0.9029E+01 -0.8039E+01
  0.9852E+01 -0.8039E+01
  0.1076E+02 -0.8039E+01
  0.1175E+02 -0.8039E+01
  0.1285E+02 -0.8039E+01
  0.1405E+02 -0.8039E+01
  0.1538E+02 -0.8039E+01
 -0.1438E+02 -0.7291E+01
 -0.1305E+02 -0.7291E+01
 -0.1185E+02 -0.7291E+01
 -0.1075E+02 -0.7291E+01
 -0.9757E+01 -0.7291E+01
 -0.8852E+01 -0.7291E+01
 -0.8029E+01 -0.7291E+01
 -0.7281E+01 -0.7291E+01
 -0.6601E+01 -0.7291E+01
 -0.5983E+01 -0.7291E+01
 -0.5420E+01 -0.7291E+01
 -0.4910E+01 -0.7291E+01
 -0.4445E+01 -0.7291E+01
 -0.4023E+01 -0.7291E+01
 -0.3639E+01 -0.7291E+01
 -0.3290E+01 -0.7291E+01
 -0.2973E+01 -0.7291E+01
 -0.2684E+01 -0.7291E+01
 -0.2422E+01 -0.7291E+01
 -0.2184E+01 -0.7291E+01
 -0.1967E+01 -0.7291E+01
 -0.1770E+01 -0.7291E+01
 -0.1591E+01 -0.7291E+01
 -0.1428E+01 -0.7291E+01
 -0.1280E+01 -0.7291E+01
 -0.1146E+01 -0.7291E+01
 -0.1023E+01 -0.7291E+01
 -0.9120E+00 -0.7291E+01
 -0.8109E+00 -0.7291E+01
 -0.7190E+00 -0.7291E+01
 -0.6354E+00 -0.7291E+01
 -0.5595E+00 -0.7291E+01
 -0.4905E+00 -0.7291E+01
 -0.4277E+00 -0.7291E+01
 -0.3706E+00 -0.7291E+01
 -0.3187E+00 -0.7291E+01
 -0.2716E+00 -0.7291E+01
 -0.2287E+00 -0.7291E+01
 -0.1897E+00 -0.7291E+01
 -0.1543E+00 -0.7291E+01
 -0.1221E+00 -0.7291E+01
 -0.9282E-01 -0.7291E+01
 -0.6620E-01 -0.7291E+01
 -0.4200E-01 -0.7291E+01
 -0.2000E-01 -0.7291E+01
  0.0000E+00 -0.7291E+01
  0.2000E-01 -0.7291E+01
  0.4000E-01 -0.7291E+01
  0.6000E-01 -0.7291E+01
  0.8000E-01 -0.7291E+01
  0.1000E+00 -0.7291E+01
  0.1200E+00 -0.7291E+01
  0.1400E+00 -0.7291E+01
  0.1600E+00 -0.7291E+01
  0.1800E+00 -0.7291E+01
  0.2000E+00 -0.7291E+01
  0.2200E+00 -0.7291E+01
  0.2400E+00 -0.7291E+01
  0.2600E+00 -0.7291E+01
  0.2800E+00 -0.7291E+01
  0.3000E+00 -0.7291E+01
  0.3200E+00 -0.7291E+01
  0.3400E+00 -0.7291E+01
  0.3600E+00 -0.7291E+01
  0.3800E+00 -0.7291E+01
  0.4000E+00 -0.7291E+01
  0.4200E+00 -0.7291E+01
  0.4400E+00 -0.7291E+01
  0.4600E+00 -0.7291E+01
  0.4800E+00 -0.7291E+01
  0.5000E+00 -0.7291E+01
  0.5200E+00 -0.7291E+01
  0.5400E+00 -0.7291E+01
  0.5600E+00 -0.7291E+01
  0.5800E+00 -0.7291E+01
  0.6000E+00 -0.7291E+01
  0.6200E+00 -0.7291E+01
  0.6400E+00 -0.7291E+01
  0.6600E+00 -0.7291E+01
  0.6800E+00 -0.7291E+01
  0.7000E+00 -0.7291E+01
  0.7200E+00 -0.7291E+01
  0.7400E+00 -0.7291E+01
  0.7600E+00 -0.7291E+01
  0.7800E+00 -0.7291E+01
  0.8000E+00 -0.7291E+01
  0.8200E+00 -0.7291E+01
  0.8400E+00 -0.7291E+01
  0.8600E+00 -0.7291E+01
  0.8800E+00 -0.7291E+01
  0.9000E+00 -0.7291E+01
  0.9200E+00 -0.7291E+01
  0.9400E+00 -0.7291E+01
  0.9600E+00 -0.7291E+01
  0.9800E+00 -0.7291E+01
  0.1000E+01 -0.7291E+01
  0.1020E+01 -0.7291E+01
  0.1042E+01 -0.7291E+01
  0.1066E+01 -0.7291E+01
  0.1093E+01 -0.7291E+01
  0.1122E+01 -0.7291E+01
  0.1154E+01 -0.7291E+01
  0.1190E+01 -0.7291E+01
  0.1229E+01 -0.7291E+01
  0.1272E+01 -0.7291E+01
  0.1319E+01 -0.7291E+01
  0.1371E+01 -0.7291E+01
  0.1428E+01 -0.7291E+01
  0.1490E+01 -0.7291E+01
  0.1559E+01 -0.7291E+01
  0.1635E+01 -0.7291E+01
  0.1719E+01 -0.7291E+01
  0.1811E+01 -0.7291E+01
  0.1912E+01 -0.7291E+01
  0.2023E+01 -0.7291E+01
  0.2146E+01 -0.7291E+01
  0.2280E+01 -0.7291E+01
  0.2428E+01 -0.7291E+01
  0.2591E+01 -0.7291E+01
  0.2770E+01 -0.7291E+01
  0.2967E+01 -0.7291E+01
  0.3184E+01 -0.7291E+01
  0.3422E+01 -0.7291E+01
  0.3684E+01 -0.7291E+01
  0.3973E+01 -0.7291E+01
  0.4290E+01 -0.7291E+01
  0.4639E+01 -0.7291E+01
  0.5023E+01 -0.7291E+01
  0.5445E+01 -0.7291E+01
  0.5910E+01 -0.7291E+01
  0.6420E+01 -0.7291E+01
  0.6983E+01 -0.7291E+01
  0.7601E+01 -0.7291E+01
  0.8281E+01 -0.7291E+01
  0.9029E+01 -0.7291E+01
  0.9852E+01 -0.7291E+01
  0.1076E+02 -0.7291E+01
  0.1175E+02 -0.7291E+01
  0.1285E+02 -0.7291E+01
  0.1405E+02 -0.7291E+01
  0.1538E+02 -0.7291E+01
 -0.1438E+02 -0.6611E+01
 -0.1305E+02 -0.6611E+01
 -0.1185E+02 -0.6611E+01
 -0.1075E+02 -0.6611E+01
 -0.9757E+01 -0.6611E+01
 -0.8852E+01 -0.6611E+01
 -0.8029E+01 -0.6611E+01
 -0.7281E+01 -0.6611E+01
 -0.6601E+01 -0.6611E+01
 -0.5983E+01 -0.6611E+01
 -0.5420E+01 -0.6611E+01
 -0.4910E+01 -0.6611E+01
 -0.4445E+01 -0.6611E+01
 -0.4023E+01 -0.6611E+01
 -0.3639E+01 -0.6611E+01
 -0.3290E+01 -0.6611E+01
 -0.2973E+01 -0.6611E+01
 -0.2684E+01 -0.6611E+01
 -0.2422E+01 -0.6611E+01
 -0.2184E+01 -0.6611E+01
 -0.1967E+01 -0.6611E+01
 -0.1770E+01 -0.6611E+01
 -0.1591E+01 -0.6611E+01
 -0.1428E+01 -0.6611E+01
 -0.1280E+01 -0.6611E+01
 -0.1146E+01 -0.6611E+01
 -0.1023E+01 -0.6611E+01
 -0.9120E+00 -0.6611E+01
 -0.8109E+00 -0.6611E+01
 -0.7190E+00 -0.6611E+01
 -0.6354E+00 -0.6611E+01
 -0.5595E+00 -0.6611E+01
 -0.4905E+00 -0.6611E+01
 -0.4277E+00 -0.6611E+01
 -0.3706E+00 -0.6611E+01
 -0.3187E+00 -0.6611E+01
 -0.2716E+00 -0.6611E+01
 -0.2287E+00 -0.6611E+01
 -0.1897E+00 -0.6611E+01
 -0.1543E+00 -0.6611E+01
 -0.1221E+00 -0.6611E+01
 -0.9282E-01 -0.6611E+01
 -0.6620E-01 -0.6611E+01
 -0.4200E-01 -0.6611E+01
 -0.2000E-01 -0.6611E+01
  0.0000E+00 -0.6611E+01
  0.2000E-01 -0.6611E+01
  0.4000E-01 -0.6611E+01
  0.6000E-01 -0.6611E+01
  0.8000E-01 -0.6611E+01
  0.1000E+00 -0.6611E+01
  0.1200E+00 -0.6611E+01
  0.1400E+00 -0.6611E+01
  0.1600E+00 -0.6611E+01
  0.1800E+00 -0.6611E+01
  0.2000E+00 -0.6611E+01
  0.2200E+00 -0.6611E+01
  0.2400E+00 -0.6611E+01
  0.2600E+00 -0.6611E+01
  0.2800E+00 -0.6611E+01
  0.3000E+00 -0.6611E+01
  0.3200E+00 -0.6611E+01
  0.3400E+00 -0.6611E+01
  0.3600E+00 -0.6611E+01
  0.3800E+00 -0.6611E+01
  0.4000E+00 -0.6611E+01
  0.4200E+00 -0.6611E+01
  0.4400E+00 -0.6611E+01
  0.4600E+00 -0.6611E+01